 Gaussian 16, Revision A.03,
 Gaussian 16:  ES64L-G16RevA.03 25-Dec-2016

 ---------------------------------------------------------------
 #p opt=modredundant b3lyp/gen 6d empiricaldispersion=gd3bj scrf
 ---------------------------------------------------------------

 ----------
 b3lyp scan
 ----------
 Symbolic Z-matrix:
 Charge =  0 Multiplicity = 1

 SCF Done:  E(RB3LYP) =  -343.336592929     A.U. after   12 cycles
 SCF Done:  E(RB3LYP) =  -343.341791028     A.U. after   10 cycles
 SCF Done:  E(RB3LYP) =  -343.342664599     A.U. after   10 cycles
 SCF Done:  E(RB3LYP) =  -343.342831519     A.U. after   10 cycles
 SCF Done:  E(RB3LYP) =  -343.343037369     A.U. after    9 cycles
 SCF Done:  E(RB3LYP) =  -343.343075627     A.U. after    8 cycles
 SCF Done:  E(RB3LYP) =  -343.343087752     A.U. after    8 cycles
 SCF Done:  E(RB3LYP) =  -343.343088322     A.U. after    6 cycles
 SCF Done:  E(RB3LYP) =  -343.343088570     A.U. after    6 cycles
 SCF Done:  E(RB3LYP) =  -343.343088507     A.U. after    6 cycles
 Optimization completed.
    -- Stationary point found.
 Optimization completed.
 SCF Done:  E(RB3LYP) =  -343.357101995     A.U. after    8 cycles
 SCF Done:  E(RB3LYP) =  -343.357073447     A.U. after    9 cycles
 SCF Done:  E(RB3LYP) =  -343.357082771     A.U. after    8 cycles
 SCF Done:  E(RB3LYP) =  -343.356964505     A.U. after    9 cycles
 SCF Done:  E(RB3LYP) =  -343.356973210     A.U. after    8 cycles
 SCF Done:  E(RB3LYP) =  -343.356767662     A.U. after    9 cycles
 SCF Done:  E(RB3LYP) =  -343.356775883     A.U. after    8 cycles
    -- Stationary point found.
 SCF Done:  E(RB3LYP) =  -343.356485616     A.U. after    9 cycles
 SCF Done:  E(RB3LYP) =  -343.356493408     A.U. after    8 cycles
 SCF Done:  E(RB3LYP) =  -343.356493374     A.U. after    6 cycles
 Optimization completed.
    -- Stationary point found.

                         Standard orientation:
 ---------------------------------------------------------------------
 Center     Atomic      Atomic             Coordinates (Angstroms)
 Number     Number       Type             X           Y           Z
 ---------------------------------------------------------------------
      1          6           0       -2.112023   -0.939298   -0.316608
      2          1           0       -3.082763   -1.091971    0.151191
      3          1           0       -1.518526   -1.852276   -0.178210
      4          1           0       -2.269728   -0.802508   -1.386889
      5          6           0        0.987149   -0.374534   -0.127984
      6          8           0        1.800756   -0.557477   -1.031397
      7          6           0       -0.195559    0.590612   -0.318636
      8          1           0       -0.314227    0.645433   -1.402184
      9          6           0        0.247196    1.968999    0.188238
     10          1           0       -0.488477    2.717742   -0.098736
     11          1           0        1.213506    2.246670   -0.229396
     12          1           0        0.333619    1.969407    1.275719
     13          7           0       -1.493994    0.262494    0.232388
     14          1           0       -1.495005    0.258583    1.244440
     15          7           0        1.116928   -0.935310    1.089680
     16          1           0        1.879011   -1.567749    1.269634
     17          1           0        0.415420   -0.828473    1.801079
 ---------------------------------------------------------------------

 The electronic state is 1-A.
 Alpha  occ. eigenvalues --  -19.10809 -14.34899 -14.31876 -10.28433 -10.21755
 Alpha  occ. eigenvalues --  -10.19385 -10.17202  -1.04724  -0.92797  -0.90718
 Alpha  occ. eigenvalues --   -0.76829  -0.66923  -0.65251  -0.59623  -0.55619
 Alpha  occ. eigenvalues --   -0.50387  -0.47609  -0.45273  -0.44220  -0.43514
 Alpha  occ. eigenvalues --   -0.41033  -0.39163  -0.37858  -0.36296  -0.35769
 Alpha  occ. eigenvalues --   -0.28846  -0.28671  -0.23334
 Alpha virt. eigenvalues --   -0.00599   0.00164   0.01038   0.01538   0.01610
 Alpha virt. eigenvalues --    0.03621   0.04406   0.05222   0.05371   0.05953
 Alpha virt. eigenvalues --    0.07603   0.08071   0.08617   0.08859   0.09849

 Mulliken charges:
               1
     1  C   -0.458602
     2  H    0.189379
     3  H    0.166137
     4  H    0.182349
     5  C    0.403585
     6  O   -0.590928
     7  C   -0.173620
     8  H    0.215579
     9  C   -0.527146
    10  H    0.192051
    11  H    0.193000
    12  H    0.191569
    13  N   -0.378582
    14  H    0.254391
    15  N   -0.468706
    16  H    0.308058
    17  H    0.301488
 Sum of Mulliken charges =  -0.00000

 Dipole moment (field-independent basis, Debye):
    X=             -2.3654    Y=             -0.7747    Z=              4.8013  Tot=              5.4081
 Quadrupole moment (field-independent basis, Debye-Ang):
   XX=            -50.3431   YY=            -42.8128   ZZ=            -41.6342
   XY=              2.5531   XZ=              6.0648   YZ=             -4.3332

 Normal termination of Gaussian 16 at Sun Jun 24 19:29:01 2018.
